# vtk DataFile Version 3.0
vtk output
ASCII
DATASET STRUCTURED_GRID
DIMENSIONS 2 2 2
POINTS 8 float 
0 0 0
1 0 0
0 1 0
1 1 0
0 0 1
1 0 1
0 1 1
1 1 1
POINT_DATA 8
SCALARS myscalar float 1
LOOKUP_TABLE default
0
1
0
1
0
1
0
1
