# vtk DataFile Version 3.0
vtk output
ASCII
DATASET RECTILINEAR_GRID
FIELD FieldData 5
base_index 1 3 int
0 0 0 
avtOriginalBounds 1 6 double
0 1 0 1 0 1 
MeshName 1 1 string
mesh

CYCLE 1 1 int
0 
TIME 1 1 double
0 
DIMENSIONS 2 2 2
X_COORDINATES 2 float
0 1
Y_COORDINATES 2 float
0 1
Z_COORDINATES 2 float
0 1
POINT_DATA 8
SCALARS myscalar float 1
LOOKUP_TABLE default
0
1
0
1
0
1
0
1
